MODEL 1
REMARK VINA RESULT:    -5.012      0.000      0.000
REMARK INTER + INTRA:          -6.202
REMARK INTER:                  -5.891
REMARK INTRA:                  -0.311
REMARK UNBOUND:                -0.311
REMARK SMILES CCN1[C@@H]2CC[C@H](CNC)C[C@H]2[C@H]2CCCC[C@@H]21
REMARK SMILES IDX 5 1 6 2 7 3 11 4 12 5 13 6 14 7 15 8 16 9 17 10 18 11 3 12
REMARK SMILES IDX 4 13 8 14 9 15 10 16 2 18 1 19
REMARK H PARENT 9 17
ROOT
ATOM      1  C   UNL     1     118.100 106.588 -45.553  1.00  0.00    +0.020 C 
ATOM      2  C   UNL     1     118.841 107.360 -44.601  1.00  0.00    +0.006 C 
ATOM      3  C   UNL     1     120.246 107.600 -44.774  1.00  0.00    +0.003 C 
ATOM      4  C   UNL     1     120.913 107.067 -45.904  1.00  0.00    +0.010 C 
ATOM      5  C   UNL     1     120.193 106.284 -46.881  1.00  0.00    +0.011 C 
ATOM      6  C   UNL     1     120.583 105.628 -48.090  1.00  0.00    +0.011 C 
ATOM      7  C   UNL     1     121.836 105.510 -48.787  1.00  0.00    +0.005 C 
ATOM      8  C   UNL     1     121.899 104.768 -49.996  1.00  0.00    +0.000 C 
ATOM      9  C   UNL     1     120.739 104.141 -50.520  1.00  0.00    +0.002 C 
ATOM     10  C   UNL     1     119.490 104.242 -49.848  1.00  0.00    +0.019 C 
ATOM     11  C   UNL     1     119.432 104.993 -48.631  1.00  0.00    +0.060 C 
ATOM     12  N   UNL     1     118.371 105.267 -47.764  1.00  0.00    -0.297 NA
ATOM     13  C   UNL     1     118.798 106.051 -46.691  1.00  0.00    +0.060 C 
ENDROOT
BRANCH   3  14
ATOM     14  C   UNL     1     120.948 108.422 -43.701  1.00  0.00    +0.084 C 
BRANCH  14  15
ATOM     15  N   UNL     1     120.063 108.690 -42.561  1.00  0.00    -0.319 NA
ATOM     16  C   UNL     1     119.674 110.116 -42.499  1.00  0.00    +0.101 C 
ATOM     17  H   UNL     1     119.213 108.116 -42.655  1.00  0.00    +0.122 HD
ENDBRANCH  14  15
ENDBRANCH   3  14
BRANCH  12  18
ATOM     18  C   UNL     1     117.000 104.777 -47.963  1.00  0.00    +0.081 C 
ATOM     19  C   UNL     1     116.784 103.441 -47.249  1.00  0.00    +0.021 C 
ENDBRANCH  12  18
TORSDOF 3
ENDMDL
