MODEL 1
REMARK VINA RESULT:    -4.805      0.000      0.000
REMARK INTER + INTRA:          -5.610
REMARK INTER:                  -5.367
REMARK INTRA:                  -0.243
REMARK UNBOUND:                -0.243
REMARK SMILES Cn1cc(-c2ccccc2)c(-n2cccc2)n1
REMARK SMILES IDX 2 1 17 2 4 3 11 4 3 5 1 6 12 7 13 8 16 9 14 10 15 11 5 12
REMARK SMILES IDX 6 13 10 14 7 15 9 16 8 17
REMARK H PARENT
ROOT
ATOM      1  N   UNL     1     122.959 109.335 -45.419  1.00  0.00    -0.273 N 
ATOM      2  N   UNL     1     121.857 109.481 -44.664  1.00  0.00    -0.154 NA
ATOM      3  C   UNL     1     121.549 107.918 -46.302  1.00  0.00    +0.045 A 
ATOM      4  C   UNL     1     120.999 108.613 -45.208  1.00  0.00    +0.166 A 
ATOM      5  C   UNL     1     122.826 108.411 -46.414  1.00  0.00    +0.119 A 
ATOM      6  C   UNL     1     124.132 110.125 -45.134  1.00  0.00    +0.173 C 
ENDROOT
BRANCH   4   7
ATOM      7  N   UNL     1     119.729 108.504 -44.658  1.00  0.00    -0.307 N 
ATOM      8  C   UNL     1     118.675 109.337 -44.933  1.00  0.00    +0.093 A 
ATOM      9  C   UNL     1     119.337 107.550 -43.757  1.00  0.00    +0.093 A 
ATOM     10  C   UNL     1     117.595 108.908 -44.193  1.00  0.00    +0.020 A 
ATOM     11  C   UNL     1     118.014 107.777 -43.449  1.00  0.00    +0.020 A 
ENDBRANCH   4   7
BRANCH   3  12
ATOM     12  C   UNL     1     121.002 106.914 -47.171  1.00  0.00    -0.013 A 
ATOM     13  C   UNL     1     121.848 106.175 -47.999  1.00  0.00    +0.009 A 
ATOM     14  C   UNL     1     119.629 106.677 -47.187  1.00  0.00    +0.009 A 
ATOM     15  C   UNL     1     121.318 105.200 -48.843  1.00  0.00    +0.001 A 
ATOM     16  C   UNL     1     119.099 105.701 -48.032  1.00  0.00    +0.001 A 
ATOM     17  C   UNL     1     119.943 104.963 -48.860  1.00  0.00    +0.000 A 
ENDBRANCH   3  12
TORSDOF 2
ENDMDL
