MODEL 1
REMARK VINA RESULT:    -4.716      0.000      0.000
REMARK INTER + INTRA:          -9.861
REMARK INTER:                  -7.198
REMARK INTRA:                  -2.663
REMARK UNBOUND:                -2.663
REMARK SMILES CNC(=O)c1ccc(NCC#Cc2cc3c(N[C@@H]4CCN(C)C[C@@H]4F)cccc3n2CC(F)(F)F)c(OC)c1
REMARK SMILES IDX 11 1 10 2 12 3 16 4 15 5 26 6 29 7 14 8 27 9 30 10 28 11
REMARK SMILES IDX 13 12 17 13 18 15 24 16 23 17 19 18 21 19 20 20 25 21 22 22
REMARK SMILES IDX 31 23 32 24 33 25 34 26 35 27 9 28 8 30 36 31 7 32 39 33
REMARK SMILES IDX 6 34 5 35 37 36 38 37 3 38 4 39 2 40 1 41
REMARK H PARENT 17 14 9 29 2 42
ROOT
ATOM      1  C   UNL     1     122.721 108.532 -50.062  1.00  0.00    -0.075 C 
ATOM      2  C   UNL     1     123.847 109.108 -50.800  1.00  0.00    +0.203 C 
ENDROOT
BRANCH   1   3
ATOM      3  C   UNL     1     121.798 108.057 -49.459  1.00  0.00    -0.047 C 
ATOM      4  C   UNL     1     118.121 107.087 -46.192  1.00  0.00    +0.044 A 
ATOM      5  C   UNL     1     119.063 107.110 -47.239  1.00  0.00    +0.024 A 
ATOM      6  C   UNL     1     117.199 106.036 -46.125  1.00  0.00    +0.026 A 
ATOM      7  C   UNL     1     119.046 106.079 -48.180  1.00  0.00    +0.051 A 
ATOM      8  C   UNL     1     120.115 107.995 -47.607  1.00  0.00    +0.048 A 
ATOM      9  C   UNL     1     117.205 105.021 -47.079  1.00  0.00    +0.004 A 
ATOM     10  N   UNL     1     120.053 106.337 -49.083  1.00  0.00    -0.325 N 
ATOM     11  C   UNL     1     118.130 105.022 -48.127  1.00  0.00    +0.027 A 
ATOM     12  C   UNL     1     120.705 107.493 -48.744  1.00  0.00    +0.093 A 
BRANCH   4  13
ATOM     13  N   UNL     1     118.083 108.077 -45.225  1.00  0.00    -0.379 N 
ATOM     14  H   UNL     1     117.940 109.050 -45.531  1.00  0.00    +0.160 HD
BRANCH  13  15
ATOM     15  C   UNL     1     118.233 107.820 -43.806  1.00  0.00    +0.116 C 
ATOM     16  C   UNL     1     119.604 108.282 -43.316  1.00  0.00    +0.202 C 
ATOM     17  C   UNL     1     119.738 109.803 -43.263  1.00  0.00    +0.124 C 
ATOM     18  C   UNL     1     117.131 108.539 -43.026  1.00  0.00    +0.043 C 
ATOM     19  N   UNL     1     118.666 110.401 -42.459  1.00  0.00    -0.303 NA
ATOM     20  C   UNL     1     117.339 110.057 -42.990  1.00  0.00    +0.086 C 
ATOM     21  F   UNL     1     120.569 107.779 -44.132  1.00  0.00    -0.244 F 
ATOM     22  C   UNL     1     118.829 111.853 -42.387  1.00  0.00    +0.105 C 
ENDBRANCH  13  15
ENDBRANCH   4  13
BRANCH  10  23
ATOM     23  C   UNL     1     120.372 105.503 -50.223  1.00  0.00    +0.238 C 
BRANCH  23  24
ATOM     24  C   UNL     1     121.463 104.498 -49.915  1.00  0.00    +0.406 C 
ATOM     25  F   UNL     1     122.527 104.651 -50.731  1.00  0.00    -0.169 F 
ATOM     26  F   UNL     1     121.894 104.603 -48.640  1.00  0.00    -0.169 F 
ATOM     27  F   UNL     1     120.999 103.239 -50.085  1.00  0.00    -0.169 F 
ENDBRANCH  23  24
ENDBRANCH  10  23
ENDBRANCH   1   3
BRANCH   2  28
ATOM     28  N   UNL     1     124.038 110.487 -50.427  1.00  0.00    -0.371 N 
ATOM     29  H   UNL     1     124.262 111.165 -51.171  1.00  0.00    +0.161 HD
BRANCH  28  30
ATOM     30  C   UNL     1     123.937 110.956 -49.125  1.00  0.00    +0.078 A 
ATOM     31  C   UNL     1     122.825 111.693 -48.720  1.00  0.00    +0.142 A 
ATOM     32  C   UNL     1     124.962 110.685 -48.219  1.00  0.00    +0.030 A 
ATOM     33  C   UNL     1     122.738 112.160 -47.408  1.00  0.00    +0.062 A 
ATOM     34  C   UNL     1     124.874 111.151 -46.907  1.00  0.00    +0.016 A 
ATOM     35  C   UNL     1     123.763 111.889 -46.502  1.00  0.00    +0.043 A 
BRANCH  31  36
ATOM     36  O   UNL     1     121.813 111.968 -49.590  1.00  0.00    -0.495 OA
ATOM     37  C   UNL     1     120.515 111.488 -49.247  1.00  0.00    +0.278 C 
ENDBRANCH  31  36
BRANCH  35  38
ATOM     38  C   UNL     1     123.672 112.376 -45.134  1.00  0.00    +0.251 C 
ATOM     39  O   UNL     1     122.568 112.469 -44.569  1.00  0.00    -0.269 OA
ATOM     40  N   UNL     1     124.874 112.706 -44.498  1.00  0.00    -0.355 N 
ATOM     41  C   UNL     1     124.951 113.180 -43.135  1.00  0.00    +0.143 C 
ATOM     42  H   UNL     1     125.750 112.604 -45.028  1.00  0.00    +0.163 HD
ENDBRANCH  35  38
ENDBRANCH  28  30
ENDBRANCH   2  28
TORSDOF 9
ENDMDL
